 SPCE water box 

 6540 atoms
 4360 bonds
 2180 angles
 0 dihedrals
 0 impropers

 2 atom types
 1 bond types
 1 angle types
 0 dihedral types
 0 improper types

 0.000 40.310  xlo xhi
 0.000 40.310  ylo yhi
 0.000 80.620  zlo zhi

 Masses

 1 15.999000 # OW
 2 1.008000 # HW

 Atoms

1 1 1 -0.847600 32.137001 27.777000 25.226002 # OW SOL
2 1 2 0.423800 32.240002 28.768999 25.301001 # HW SOL
3 1 2 0.423800 33.037998 27.355000 25.126001 # HW SOL
4 2 1 -0.847600 0.270000 3.067000 59.330002 # OW SOL
5 2 2 0.423800 0.489000 3.962000 58.941002 # HW SOL
6 2 2 0.423800 0.259000 3.131000 60.328003 # HW SOL
7 3 1 -0.847600 5.702000 20.118000 55.997002 # OW SOL
8 3 2 0.423800 6.526000 20.681000 55.929001 # HW SOL
9 3 2 0.423800 5.590000 19.587000 55.156998 # HW SOL
10 4 1 -0.847600 23.700001 3.251000 47.884003 # OW SOL
11 4 2 0.423800 24.327999 3.061000 47.129002 # HW SOL
12 4 2 0.423800 22.851000 2.741000 47.748001 # HW SOL
13 5 1 -0.847600 29.433001 21.825001 30.099001 # OW SOL
14 5 2 0.423800 28.649000 21.311001 30.447001 # HW SOL
15 5 2 0.423800 30.084999 21.194000 29.679001 # HW SOL
16 6 1 -0.847600 38.590000 5.956000 29.230000 # OW SOL
17 6 2 0.423800 39.124001 6.001000 30.074001 # HW SOL
18 6 2 0.423800 37.615002 5.984000 29.450001 # HW SOL
19 7 1 -0.847600 20.379000 21.658001 53.410004 # OW SOL
20 7 2 0.423800 20.474001 20.959999 54.119003 # HW SOL
21 7 2 0.423800 20.801001 22.509001 53.721001 # HW SOL
22 8 1 -0.847600 2.169000 11.998000 53.581001 # OW SOL
23 8 2 0.423800 2.763000 11.240000 53.314003 # HW SOL
24 8 2 0.423800 1.765000 12.410000 52.764000 # HW SOL
25 9 1 -0.847600 11.643000 8.853000 32.233002 # OW SOL
26 9 2 0.423800 11.166000 8.393000 31.485001 # HW SOL
27 9 2 0.423800 12.523000 9.196000 31.907001 # HW SOL
28 10 1 -0.847600 38.777000 26.708000 24.330002 # OW SOL
29 10 2 0.423800 38.620998 25.725000 24.242001 # HW SOL
30 10 2 0.423800 39.715000 26.871000 24.635000 # HW SOL
31 11 1 -0.847600 28.294001 10.329000 51.405998 # OW SOL
32 11 2 0.423800 28.399000 11.141000 51.981003 # HW SOL
33 11 2 0.423800 28.836000 9.579000 51.786003 # HW SOL
34 12 1 -0.847600 28.441000 5.984000 36.901001 # OW SOL
35 12 2 0.423800 28.958000 6.834000 36.793999 # HW SOL
36 12 2 0.423800 27.730000 6.111000 37.592003 # HW SOL
37 13 1 -0.847600 36.293999 20.971001 51.524002 # OW SOL
38 13 2 0.423800 36.897999 21.466000 52.149002 # HW SOL
39 13 2 0.423800 35.584999 21.589001 51.186001 # HW SOL
40 14 1 -0.847600 38.513000 22.273001 42.635002 # OW SOL
41 14 2 0.423800 39.250999 22.791000 43.067001 # HW SOL
42 14 2 0.423800 37.888000 21.934000 43.336998 # HW SOL
43 15 1 -0.847600 33.702000 10.345000 24.666000 # OW SOL
44 15 2 0.423800 33.761002 11.343000 24.653000 # HW SOL
45 15 2 0.423800 34.622002 9.957000 24.611000 # HW SOL
46 16 1 -0.847600 32.661999 0.531000 52.474998 # OW SOL
47 16 2 0.423800 33.090000 0.398000 51.582001 # HW SOL
48 16 2 0.423800 33.200001 0.062000 53.176003 # HW SOL
49 17 1 -0.847600 27.944000 6.210000 34.214001 # OW SOL
50 17 2 0.423800 28.007000 6.281000 35.209000 # HW SOL
51 17 2 0.423800 28.546000 6.889000 33.792000 # HW SOL
52 18 1 -0.847600 16.948999 33.110001 47.840000 # OW SOL
53 18 2 0.423800 16.159000 33.368999 47.284000 # HW SOL
54 18 2 0.423800 17.343000 33.928001 48.259003 # HW SOL
55 19 1 -0.847600 32.889000 33.500999 54.891998 # OW SOL
56 19 2 0.423800 32.473000 32.834000 55.510002 # HW SOL
57 19 2 0.423800 32.820000 33.172001 53.951004 # HW SOL
58 20 1 -0.847600 13.436000 29.627001 21.602001 # OW SOL
59 20 2 0.423800 14.189000 28.976999 21.504002 # HW SOL
60 20 2 0.423800 12.674000 29.184999 22.074001 # HW SOL
61 21 1 -0.847600 5.930000 2.225000 42.330002 # OW SOL
62 21 2 0.423800 5.333000 1.431000 42.447998 # HW SOL
63 21 2 0.423800 6.800000 1.932000 41.932999 # HW SOL
64 22 1 -0.847600 19.190001 17.264999 55.334999 # OW SOL
65 22 2 0.423800 19.459000 17.593000 54.429001 # HW SOL
66 22 2 0.423800 19.205000 18.025999 55.983002 # HW SOL
67 23 1 -0.847600 13.369000 7.059000 39.278999 # OW SOL
68 23 2 0.423800 13.020000 6.194000 39.639000 # HW SOL
69 23 2 0.423800 13.432000 7.727000 40.021000 # HW SOL
70 24 1 -0.847600 5.765000 13.778000 46.318001 # OW SOL
71 24 2 0.423800 6.643000 14.257000 46.319000 # HW SOL
72 24 2 0.423800 5.027000 14.435000 46.162003 # HW SOL
73 25 1 -0.847600 5.875000 15.961000 21.993000 # OW SOL
74 25 2 0.423800 6.824000 16.104000 21.714001 # HW SOL
75 25 2 0.423800 5.825000 15.182000 22.618000 # HW SOL
76 26 1 -0.847600 37.000999 24.473000 21.132000 # OW SOL
77 26 2 0.423800 36.500000 23.671000 21.456001 # HW SOL
78 26 2 0.423800 36.535000 25.302999 21.436001 # HW SOL
79 27 1 -0.847600 18.875999 12.084000 55.407997 # OW SOL
80 27 2 0.423800 18.096001 12.575000 55.793999 # HW SOL
81 27 2 0.423800 18.555000 11.451000 54.703003 # HW SOL
82 28 1 -0.847600 33.724998 33.834000 37.019001 # OW SOL
83 28 2 0.423800 34.273998 33.647999 36.204002 # HW SOL
84 28 2 0.423800 32.852001 34.240002 36.747002 # HW SOL
85 29 1 -0.847600 5.465000 17.504000 47.289001 # OW SOL
86 29 2 0.423800 5.683000 18.212000 46.617001 # HW SOL
87 29 2 0.423800 4.671000 16.983000 46.978001 # HW SOL
88 30 1 -0.847600 2.369000 4.357000 38.858002 # OW SOL
89 30 2 0.423800 2.506000 4.120000 39.820000 # HW SOL
90 30 2 0.423800 2.503000 5.340000 38.734001 # HW SOL
91 31 1 -0.847600 17.482000 22.669001 36.861000 # OW SOL
92 31 2 0.423800 17.239000 22.162001 36.034000 # HW SOL
93 31 2 0.423800 17.084999 22.216000 37.659000 # HW SOL
94 32 1 -0.847600 33.345001 36.286999 58.960999 # OW SOL
95 32 2 0.423800 34.008999 35.549000 58.842003 # HW SOL
96 32 2 0.423800 32.452999 35.991001 58.621002 # HW SOL
97 33 1 -0.847600 33.368000 12.598000 46.745003 # OW SOL
98 33 2 0.423800 34.228001 12.109000 46.597000 # HW SOL
99 33 2 0.423800 32.771999 12.472000 45.952003 # HW SOL
100 34 1 -0.847600 12.321000 38.111000 52.556999 # OW SOL
101 34 2 0.423800 12.356000 38.957001 52.025002 # HW SOL
102 34 2 0.423800 12.007000 38.313999 53.485001 # HW SOL
103 35 1 -0.847600 16.777000 31.448999 30.035000 # OW SOL
104 35 2 0.423800 17.434000 32.201000 30.076000 # HW SOL
105 35 2 0.423800 16.398001 31.285999 30.946001 # HW SOL
106 36 1 -0.847600 25.896000 29.870001 45.359001 # OW SOL
107 36 2 0.423800 26.813999 29.523001 45.167999 # HW SOL
108 36 2 0.423800 25.235001 29.405001 44.770000 # HW SOL
109 37 1 -0.847600 0.427000 20.551001 21.036001 # OW SOL
110 37 2 0.423800 0.016000 20.054001 20.272001 # HW SOL
111 37 2 0.423800 1.212000 20.038000 21.385000 # HW SOL
112 38 1 -0.847600 11.730000 12.082000 38.580002 # OW SOL
113 38 2 0.423800 12.680000 11.773000 38.607002 # HW SOL
114 38 2 0.423800 11.121000 11.302000 38.723000 # HW SOL
115 39 1 -0.847600 35.507999 14.319000 55.718002 # OW SOL
116 39 2 0.423800 34.849998 13.636000 55.402000 # HW SOL
117 39 2 0.423800 35.632000 15.015000 55.011002 # HW SOL
118 40 1 -0.847600 9.024000 36.561001 50.335999 # OW SOL
119 40 2 0.423800 9.105000 37.386002 50.895000 # HW SOL
120 40 2 0.423800 8.148000 36.569000 49.854000 # HW SOL
121 41 1 -0.847600 18.386000 28.156000 41.112999 # OW SOL
122 41 2 0.423800 19.134001 28.408001 41.727001 # HW SOL
123 41 2 0.423800 17.573000 27.934000 41.652000 # HW SOL
124 42 1 -0.847600 8.501000 21.599001 38.334999 # OW SOL
125 42 2 0.423800 8.605000 21.052999 39.167000 # HW SOL
126 42 2 0.423800 7.530000 21.775999 38.172001 # HW SOL
127 43 1 -0.847600 11.383000 4.223000 46.676003 # OW SOL
128 43 2 0.423800 11.022000 5.152000 46.598999 # HW SOL
129 43 2 0.423800 10.651000 3.565000 46.497002 # HW SOL
130 44 1 -0.847600 37.908001 12.878000 20.298000 # OW SOL
131 44 2 0.423800 38.118000 11.976000 20.674000 # HW SOL
132 44 2 0.423800 38.758999 13.378000 20.136002 # HW SOL
133 45 1 -0.847600 37.373001 10.865000 29.935001 # OW SOL
134 45 2 0.423800 36.737999 10.439000 29.290001 # HW SOL
135 45 2 0.423800 37.817001 11.648000 29.499001 # HW SOL
136 46 1 -0.847600 13.270000 3.159000 21.517000 # OW SOL
137 46 2 0.423800 14.020000 2.498000 21.490002 # HW SOL
138 46 2 0.423800 13.563000 3.976000 22.014000 # HW SOL
139 47 1 -0.847600 15.660000 10.038000 33.126999 # OW SOL
140 47 2 0.423800 15.478000 9.742000 34.065002 # HW SOL
141 47 2 0.423800 16.620001 9.869000 32.904999 # HW SOL
142 48 1 -0.847600 22.167999 37.195999 34.032001 # OW SOL
143 48 2 0.423800 22.204000 36.668999 34.881001 # HW SOL
144 48 2 0.423800 21.249001 37.139999 33.643002 # HW SOL
145 49 1 -0.847600 9.553000 20.009001 46.644001 # OW SOL
146 49 2 0.423800 10.543000 19.868000 46.638000 # HW SOL
147 49 2 0.423800 9.218000 19.982000 47.585999 # HW SOL
148 50 1 -0.847600 36.736000 5.506000 39.160000 # OW SOL
149 50 2 0.423800 37.688000 5.307000 39.389999 # HW SOL
150 50 2 0.423800 36.596001 6.496000 39.144001 # HW SOL
151 51 1 -0.847600 6.998000 27.825001 24.961000 # OW SOL
152 51 2 0.423800 6.403000 27.129000 25.363001 # HW SOL
153 51 2 0.423800 6.466000 28.650999 24.773001 # HW SOL
154 52 1 -0.847600 33.150002 40.026001 41.758003 # OW SOL
155 52 2 0.423800 32.770000 40.951000 41.732002 # HW SOL
156 52 2 0.423800 32.590000 39.419998 41.192001 # HW SOL
157 53 1 -0.847600 38.672001 33.929001 39.038002 # OW SOL
158 53 2 0.423800 38.074001 33.852001 38.241001 # HW SOL
159 53 2 0.423800 39.455002 33.317001 38.927002 # HW SOL
160 54 1 -0.847600 36.617001 31.760000 39.028000 # OW SOL
161 54 2 0.423800 35.761002 31.872000 39.534000 # HW SOL
162 54 2 0.423800 36.672001 32.455002 38.310001 # HW SOL
163 55 1 -0.847600 26.309999 36.069000 60.254997 # OW SOL
164 55 2 0.423800 26.709000 35.469002 60.949997 # HW SOL
165 55 2 0.423800 25.354000 35.817001 60.107002 # HW SOL
166 56 1 -0.847600 15.844000 20.334000 42.796001 # OW SOL
167 56 2 0.423800 16.077999 19.621000 42.135002 # HW SOL
168 56 2 0.423800 16.473000 21.104000 42.691002 # HW SOL
169 57 1 -0.847600 10.774000 16.931999 48.714001 # OW SOL
170 57 2 0.423800 9.947000 17.349001 49.093002 # HW SOL
171 57 2 0.423800 10.733000 15.940000 48.836998 # HW SOL
172 58 1 -0.847600 36.569000 19.667000 34.839001 # OW SOL
173 58 2 0.423800 36.549999 19.655001 35.839001 # HW SOL
174 58 2 0.423800 37.518002 19.672001 34.524002 # HW SOL
175 59 1 -0.847600 39.833000 31.950001 43.033001 # OW SOL
176 59 2 0.423800 39.306000 31.233000 42.575001 # HW SOL
177 59 2 0.423800 39.616001 31.951000 44.009003 # HW SOL
178 60 1 -0.847600 34.502998 26.284000 25.536001 # OW SOL
179 60 2 0.423800 34.688000 25.392000 25.949001 # HW SOL
180 60 2 0.423800 35.361000 26.695000 25.231001 # HW SOL
181 61 1 -0.847600 10.159000 30.326000 25.871000 # OW SOL
182 61 2 0.423800 10.130000 29.398001 26.243000 # HW SOL
183 61 2 0.423800 10.194000 30.985001 26.622002 # HW SOL
184 62 1 -0.847600 13.773000 34.159000 30.195000 # OW SOL
185 62 2 0.423800 14.076000 33.363998 29.671001 # HW SOL
186 62 2 0.423800 12.894000 34.477001 29.840000 # HW SOL
187 63 1 -0.847600 24.139000 12.438000 21.715000 # OW SOL
188 63 2 0.423800 24.240000 13.078000 22.477001 # HW SOL
189 63 2 0.423800 24.330000 12.912000 20.855001 # HW SOL
190 64 1 -0.847600 38.751999 12.150000 35.217003 # OW SOL
191 64 2 0.423800 37.855000 11.880000 34.867001 # HW SOL
192 64 2 0.423800 39.013000 13.030000 34.821999 # HW SOL
193 65 1 -0.847600 11.588000 14.833000 55.182999 # OW SOL
194 65 2 0.423800 11.140000 13.940000 55.223999 # HW SOL
195 65 2 0.423800 11.166000 15.385000 54.463997 # HW SOL
196 66 1 -0.847600 38.290001 31.707001 49.648003 # OW SOL
197 66 2 0.423800 38.196999 32.386002 48.919998 # HW SOL
198 66 2 0.423800 38.466000 30.809000 49.245003 # HW SOL
199 67 1 -0.847600 19.044001 37.105000 27.414001 # OW SOL
200 67 2 0.423800 19.296000 37.898998 26.860001 # HW SOL
201 67 2 0.423800 18.090000 37.188000 27.701000 # HW SOL
202 68 1 -0.847600 30.535000 27.065001 34.826000 # OW SOL
203 68 2 0.423800 29.892000 26.305000 34.923000 # HW SOL
204 68 2 0.423800 31.120001 27.111000 35.636002 # HW SOL
205 69 1 -0.847600 1.149000 0.819000 58.562004 # OW SOL
206 69 2 0.423800 1.210000 0.945000 57.570999 # HW SOL
207 69 2 0.423800 0.879000 1.681000 58.990997 # HW SOL
208 70 1 -0.847600 10.731000 38.362999 33.972000 # OW SOL
209 70 2 0.423800 10.928000 39.259998 33.575001 # HW SOL
210 70 2 0.423800 10.926000 37.651001 33.298000 # HW SOL
211 71 1 -0.847600 21.952999 1.760000 27.509001 # OW SOL
212 71 2 0.423800 21.405001 1.906000 26.686001 # HW SOL
213 71 2 0.423800 21.690001 0.895000 27.936001 # HW SOL
214 72 1 -0.847600 13.620000 14.195000 27.181000 # OW SOL
215 72 2 0.423800 13.205000 13.384000 26.768002 # HW SOL
216 72 2 0.423800 13.208000 15.017000 26.789001 # HW SOL
217 73 1 -0.847600 3.217000 28.167999 30.639999 # OW SOL
218 73 2 0.423800 4.099000 28.629999 30.736000 # HW SOL
219 73 2 0.423800 3.012000 27.664000 31.479000 # HW SOL
220 74 1 -0.847600 24.542000 29.243000 21.304001 # OW SOL
221 74 2 0.423800 24.447001 28.278000 21.549000 # HW SOL
222 74 2 0.423800 24.292999 29.368999 20.344000 # HW SOL
223 75 1 -0.847600 11.285000 13.758000 23.386002 # OW SOL
224 75 2 0.423800 11.366000 13.007000 22.730001 # HW SOL
225 75 2 0.423800 10.318000 13.968000 23.534000 # HW SOL
226 76 1 -0.847600 31.691999 6.811000 23.267000 # OW SOL
227 76 2 0.423800 31.487000 7.758000 23.517000 # HW SOL
228 76 2 0.423800 31.187000 6.192000 23.868000 # HW SOL
229 77 1 -0.847600 24.152000 6.393000 29.912001 # OW SOL
230 77 2 0.423800 23.268999 6.161000 29.503000 # HW SOL
231 77 2 0.423800 24.740000 6.812000 29.221001 # HW SOL
232 78 1 -0.847600 7.617000 34.511002 29.053001 # OW SOL
233 78 2 0.423800 7.187000 35.280998 28.581001 # HW SOL
234 78 2 0.423800 7.679000 34.710999 30.030001 # HW SOL
235 79 1 -0.847600 15.373000 25.993999 47.568001 # OW SOL
236 79 2 0.423800 14.554000 26.041000 46.996002 # HW SOL
237 79 2 0.423800 15.146000 25.566000 48.442001 # HW SOL
238 80 1 -0.847600 0.034000 15.082000 48.036003 # OW SOL
239 80 2 0.423800 -0.021000 14.084000 48.009003 # HW SOL
240 80 2 0.423800 0.472000 15.368000 48.888000 # HW SOL
241 81 1 -0.847600 33.112000 4.584000 49.082001 # OW SOL
242 81 2 0.423800 32.921001 5.233000 49.818001 # HW SOL
243 81 2 0.423800 33.726002 3.870000 49.417999 # HW SOL
244 82 1 -0.847600 29.853001 26.304001 25.568001 # OW SOL
245 82 2 0.423800 29.840000 25.549000 26.224001 # HW SOL
246 82 2 0.423800 30.549999 26.969000 25.838001 # HW SOL
247 83 1 -0.847600 15.349000 22.635000 34.473000 # OW SOL
248 83 2 0.423800 15.192000 23.521999 34.908001 # HW SOL
249 83 2 0.423800 16.332001 22.483999 34.370003 # HW SOL
250 84 1 -0.847600 40.285999 29.452999 53.895004 # OW SOL
251 84 2 0.423800 39.896999 29.034000 53.073997 # HW SOL
252 84 2 0.423800 39.693001 29.266001 54.678001 # HW SOL
253 85 1 -0.847600 19.115999 6.536000 20.744001 # OW SOL
254 85 2 0.423800 19.257999 5.603000 20.415001 # HW SOL
255 85 2 0.423800 18.726999 7.093000 20.010000 # HW SOL
256 86 1 -0.847600 20.044001 10.521000 50.186001 # OW SOL
257 86 2 0.423800 20.888000 10.498000 49.650002 # HW SOL
258 86 2 0.423800 20.145000 9.935000 50.991001 # HW SOL
259 87 1 -0.847600 23.313000 8.316000 44.971001 # OW SOL
260 87 2 0.423800 23.606001 8.541000 45.901001 # HW SOL
261 87 2 0.423800 22.774000 9.072000 44.599998 # HW SOL
262 88 1 -0.847600 3.590000 22.479000 35.371002 # OW SOL
263 88 2 0.423800 3.592000 22.159000 34.424000 # HW SOL
264 88 2 0.423800 4.532000 22.575001 35.693001 # HW SOL
265 89 1 -0.847600 32.125999 39.817001 56.046997 # OW SOL
266 89 2 0.423800 32.575001 39.363998 56.817001 # HW SOL
267 89 2 0.423800 32.661999 40.613998 55.771004 # HW SOL
268 90 1 -0.847600 24.528000 32.209999 48.959999 # OW SOL
269 90 2 0.423800 24.415001 32.744999 49.797001 # HW SOL
270 90 2 0.423800 25.502001 32.085999 48.773003 # HW SOL
271 91 1 -0.847600 34.255001 35.681999 41.124001 # OW SOL
272 91 2 0.423800 35.019001 35.070000 41.328003 # HW SOL
273 91 2 0.423800 34.421001 36.143002 40.251999 # HW SOL
274 92 1 -0.847600 29.329000 11.950000 46.856003 # OW SOL
275 92 2 0.423800 28.724001 11.336000 46.348999 # HW SOL
276 92 2 0.423800 29.701000 11.470000 47.650002 # HW SOL
277 93 1 -0.847600 11.399000 28.163000 36.518002 # OW SOL
278 93 2 0.423800 10.540000 27.837999 36.915001 # HW SOL
279 93 2 0.423800 11.334000 29.145000 36.341003 # HW SOL
280 94 1 -0.847600 23.861000 32.866001 54.810997 # OW SOL
281 94 2 0.423800 23.365999 33.285999 54.051003 # HW SOL
282 94 2 0.423800 24.789000 33.236000 54.849998 # HW SOL
283 95 1 -0.847600 13.071000 38.245998 56.967003 # OW SOL
284 95 2 0.423800 13.535000 37.387001 57.184998 # HW SOL
285 95 2 0.423800 12.992000 38.801998 57.793999 # HW SOL
286 96 1 -0.847600 7.724000 17.252001 55.704002 # OW SOL
287 96 2 0.423800 7.342000 16.450001 55.245003 # HW SOL
288 96 2 0.423800 7.571000 17.177000 56.689003 # HW SOL
289 97 1 -0.847600 19.073999 18.131001 32.877998 # OW SOL
290 97 2 0.423800 19.288000 17.396999 33.521999 # HW SOL
291 97 2 0.423800 18.143999 18.459000 33.042999 # HW SOL
292 98 1 -0.847600 17.562000 30.225000 22.425001 # OW SOL
293 98 2 0.423800 18.509001 30.209999 22.104000 # HW SOL
294 98 2 0.423800 17.187000 31.145000 22.315001 # HW SOL
295 99 1 -0.847600 20.398001 28.077999 22.280001 # OW SOL
296 99 2 0.423800 20.653000 28.152000 23.244001 # HW SOL
297 99 2 0.423800 20.304001 28.993999 21.889000 # HW SOL
298 100 1 -0.847600 22.389000 26.334000 42.218002 # OW SOL
299 100 2 0.423800 21.952000 25.599001 42.736000 # HW SOL
300 100 2 0.423800 22.340000 26.127001 41.241001 # HW SOL
301 101 1 -0.847600 9.407000 1.768000 29.635000 # OW SOL
302 101 2 0.423800 9.887000 0.896000 29.730000 # HW SOL
303 101 2 0.423800 9.431000 2.060000 28.679001 # HW SOL
304 102 1 -0.847600 16.629000 8.866000 35.982002 # OW SOL
305 102 2 0.423800 15.762000 9.074000 36.435001 # HW SOL
306 102 2 0.423800 16.450001 8.370000 35.132000 # HW SOL
307 103 1 -0.847600 15.791000 27.760000 42.271000 # OW SOL
308 103 2 0.423800 15.060000 28.079000 41.667000 # HW SOL
309 103 2 0.423800 15.607000 28.063999 43.206001 # HW SOL
310 104 1 -0.847600 37.455002 14.615000 46.625999 # OW SOL
311 104 2 0.423800 38.382000 14.928000 46.830002 # HW SOL
312 104 2 0.423800 36.800999 15.333000 46.862999 # HW SOL
313 105 1 -0.847600 25.308001 23.132999 57.623001 # OW SOL
314 105 2 0.423800 24.440001 23.004999 57.141998 # HW SOL
315 105 2 0.423800 25.226999 22.782000 58.556000 # HW SOL
316 106 1 -0.847600 18.514000 10.844000 58.261002 # OW SOL
317 106 2 0.423800 18.291000 11.768000 57.954002 # HW SOL
318 106 2 0.423800 19.507000 10.730000 58.282997 # HW SOL
319 107 1 -0.847600 3.233000 12.701000 34.167999 # OW SOL
320 107 2 0.423800 2.984000 12.027000 34.863998 # HW SOL
321 107 2 0.423800 3.987000 12.346000 33.616001 # HW SOL
322 108 1 -0.847600 34.984001 0.063000 25.961000 # OW SOL
323 108 2 0.423800 34.410000 -0.753000 26.038000 # HW SOL
324 108 2 0.423800 34.862999 0.471000 25.056000 # HW SOL
325 109 1 -0.847600 23.351999 19.098000 32.079002 # OW SOL
326 109 2 0.423800 23.259001 18.938999 33.062000 # HW SOL
327 109 2 0.423800 23.528000 18.229000 31.616001 # HW SOL
328 110 1 -0.847600 25.920000 5.433000 31.921001 # OW SOL
329 110 2 0.423800 25.386000 5.856000 31.189001 # HW SOL
330 110 2 0.423800 26.827999 5.195000 31.577000 # HW SOL
331 111 1 -0.847600 5.901000 21.322001 48.866001 # OW SOL
332 111 2 0.423800 5.288000 22.080000 48.640999 # HW SOL
333 111 2 0.423800 6.659000 21.660999 49.424000 # HW SOL
334 112 1 -0.847600 20.038000 15.718000 21.708000 # OW SOL
335 112 2 0.423800 20.165001 16.021000 20.763000 # HW SOL
336 112 2 0.423800 19.587999 16.441000 22.232000 # HW SOL
337 113 1 -0.847600 22.080999 16.037001 41.272003 # OW SOL
338 113 2 0.423800 22.084999 17.013000 41.056000 # HW SOL
339 113 2 0.423800 21.698000 15.898000 42.185001 # HW SOL
340 114 1 -0.847600 4.328000 28.590000 37.648003 # OW SOL
341 114 2 0.423800 5.109000 29.160000 37.903999 # HW SOL
342 114 2 0.423800 4.289000 28.504999 36.653000 # HW SOL
343 115 1 -0.847600 3.240000 27.707001 43.525002 # OW SOL
344 115 2 0.423800 2.836000 28.205000 42.759003 # HW SOL
345 115 2 0.423800 3.678000 28.354000 44.150002 # HW SOL
346 116 1 -0.847600 1.461000 35.039001 27.454000 # OW SOL
347 116 2 0.423800 0.815000 34.390999 27.051001 # HW SOL
348 116 2 0.423800 1.489000 34.909000 28.445000 # HW SOL
349 117 1 -0.847600 12.932000 32.865002 38.784000 # OW SOL
350 117 2 0.423800 13.783000 32.756001 39.297001 # HW SOL
351 117 2 0.423800 12.300000 33.438999 39.304001 # HW SOL
352 118 1 -0.847600 2.616000 20.622000 45.941002 # OW SOL
353 118 2 0.423800 2.351000 20.099001 46.750999 # HW SOL
354 118 2 0.423800 2.865000 19.993000 45.204002 # HW SOL
355 119 1 -0.847600 16.132000 0.468000 30.183001 # OW SOL
356 119 2 0.423800 16.767000 0.260000 29.439001 # HW SOL
357 119 2 0.423800 16.475000 0.071000 31.034000 # HW SOL
358 120 1 -0.847600 37.611000 13.533000 57.190002 # OW SOL
359 120 2 0.423800 37.310001 12.652000 57.556999 # HW SOL
360 120 2 0.423800 36.875000 13.937000 56.648003 # HW SOL
361 121 1 -0.847600 38.650002 27.042000 57.662003 # OW SOL
362 121 2 0.423800 39.167000 27.177000 58.508003 # HW SOL
363 121 2 0.423800 37.719002 26.752001 57.885002 # HW SOL
364 122 1 -0.847600 33.185001 32.091999 50.116001 # OW SOL
365 122 2 0.423800 33.133999 32.195999 49.123001 # HW SOL
366 122 2 0.423800 33.733002 32.834999 50.500999 # HW SOL
367 123 1 -0.847600 37.283001 1.989000 46.233002 # OW SOL
368 123 2 0.423800 38.062000 1.456000 45.903999 # HW SOL
369 123 2 0.423800 36.688999 2.220000 45.461998 # HW SOL
370 124 1 -0.847600 12.827000 24.257999 57.705002 # OW SOL
371 124 2 0.423800 13.492000 24.007999 57.001999 # HW SOL
372 124 2 0.423800 12.357000 25.099001 57.435997 # HW SOL
373 125 1 -0.847600 7.030000 27.597000 39.425003 # OW SOL
374 125 2 0.423800 7.103000 27.504000 40.417999 # HW SOL
375 125 2 0.423800 6.470000 26.853001 39.061001 # HW SOL
376 126 1 -0.847600 10.307000 5.957000 51.034000 # OW SOL
377 126 2 0.423800 9.860000 5.064000 50.978001 # HW SOL
378 126 2 0.423800 9.694000 6.659000 50.669998 # HW SOL
379 127 1 -0.847600 27.371000 29.406000 21.285000 # OW SOL
380 127 2 0.423800 26.386000 29.451000 21.450001 # HW SOL
381 127 2 0.423800 27.625000 28.472000 21.034000 # HW SOL
382 128 1 -0.847600 2.468000 20.027000 50.631001 # OW SOL
383 128 2 0.423800 3.059000 20.399000 51.347000 # HW SOL
384 128 2 0.423800 3.024000 19.532000 49.964001 # HW SOL
385 129 1 -0.847600 32.945000 22.138000 27.599001 # OW SOL
386 129 2 0.423800 33.043999 21.583000 26.773001 # HW SOL
387 129 2 0.423800 32.341000 22.912001 27.409000 # HW SOL
388 130 1 -0.847600 34.639999 30.377001 24.292000 # OW SOL
389 130 2 0.423800 35.374001 30.986000 23.989000 # HW SOL
390 130 2 0.423800 35.035999 29.572001 24.734001 # HW SOL
391 131 1 -0.847600 14.285000 36.334000 35.310001 # OW SOL
392 131 2 0.423800 14.443000 36.695999 36.228001 # HW SOL
393 131 2 0.423800 13.434000 35.808998 35.301003 # HW SOL
394 132 1 -0.847600 14.437000 25.414000 23.894001 # OW SOL
395 132 2 0.423800 15.360000 25.125000 24.147001 # HW SOL
396 132 2 0.423800 14.439000 25.750000 22.952000 # HW SOL
397 133 1 -0.847600 38.504002 9.208000 46.819000 # OW SOL
398 133 2 0.423800 38.070000 8.747000 46.044998 # HW SOL
399 133 2 0.423800 38.016998 10.058000 47.018002 # HW SOL
400 134 1 -0.847600 19.826000 16.500000 59.242004 # OW SOL
401 134 2 0.423800 20.013000 16.070999 58.358002 # HW SOL
402 134 2 0.423800 18.933001 16.950001 59.210999 # HW SOL
403 135 1 -0.847600 27.033001 19.655001 54.904999 # OW SOL
404 135 2 0.423800 26.139999 19.868999 54.509003 # HW SOL
405 135 2 0.423800 27.343000 18.766001 54.568001 # HW SOL
406 136 1 -0.847600 28.146999 31.990999 20.517000 # OW SOL
407 136 2 0.423800 27.806000 32.195999 19.600000 # HW SOL
408 136 2 0.423800 27.840000 31.079000 20.790001 # HW SOL
409 137 1 -0.847600 21.822001 6.002000 44.891998 # OW SOL
410 137 2 0.423800 22.487000 6.747000 44.935001 # HW SOL
411 137 2 0.423800 20.947001 6.314000 45.263000 # HW SOL
412 138 1 -0.847600 35.124001 2.979000 49.528999 # OW SOL
413 138 2 0.423800 35.862000 3.168000 48.881001 # HW SOL
414 138 2 0.423800 35.355999 2.172000 50.071999 # HW SOL
415 139 1 -0.847600 3.381000 32.629002 50.163002 # OW SOL
416 139 2 0.423800 4.213000 33.070000 50.500000 # HW SOL
417 139 2 0.423800 3.398000 31.659000 50.403999 # HW SOL
418 140 1 -0.847600 22.591999 10.792000 48.881001 # OW SOL
419 140 2 0.423800 23.179001 10.141000 48.400002 # HW SOL
420 140 2 0.423800 22.260000 11.481000 48.237000 # HW SOL
421 141 1 -0.847600 33.763000 23.743999 30.385000 # OW SOL
422 141 2 0.423800 33.484001 23.445999 29.472000 # HW SOL
423 141 2 0.423800 33.955002 24.725000 30.371000 # HW SOL
424 142 1 -0.847600 6.549000 12.344000 51.818001 # OW SOL
425 142 2 0.423800 7.138000 11.944000 52.521004 # HW SOL
426 142 2 0.423800 5.765000 12.786000 52.252998 # HW SOL
427 143 1 -0.847600 4.201000 23.677000 48.336998 # OW SOL
428 143 2 0.423800 4.437000 24.243000 49.126999 # HW SOL
429 143 2 0.423800 3.927000 24.264999 47.576000 # HW SOL
430 144 1 -0.847600 4.055000 3.370000 46.052002 # OW SOL
431 144 2 0.423800 3.825000 4.207000 45.556000 # HW SOL
432 144 2 0.423800 5.032000 3.182000 45.953003 # HW SOL
433 145 1 -0.847600 0.806000 4.182000 41.869003 # OW SOL
434 145 2 0.423800 1.687000 3.819000 42.175003 # HW SOL
435 145 2 0.423800 0.160000 3.429000 41.747002 # HW SOL
436 146 1 -0.847600 18.569000 24.132999 26.651001 # OW SOL
437 146 2 0.423800 18.403000 24.334999 27.617001 # HW SOL
438 146 2 0.423800 18.476000 23.150000 26.495001 # HW SOL
439 147 1 -0.847600 22.407000 34.730999 30.463001 # OW SOL
440 147 2 0.423800 23.379999 34.931999 30.576000 # HW SOL
441 147 2 0.423800 22.299999 33.820999 30.062000 # HW SOL
442 148 1 -0.847600 5.391000 23.514999 52.794998 # OW SOL
443 148 2 0.423800 5.365000 23.965000 51.903000 # HW SOL
444 148 2 0.423800 6.330000 23.510000 53.139000 # HW SOL
445 149 1 -0.847600 14.474000 22.733000 21.815001 # OW SOL
446 149 2 0.423800 13.660000 23.240000 22.099001 # HW SOL
447 149 2 0.423800 15.264000 23.052999 22.338001 # HW SOL
448 150 1 -0.847600 25.483000 11.094000 46.639999 # OW SOL
449 150 2 0.423800 26.368999 10.904000 46.216003 # HW SOL
450 150 2 0.423800 25.160000 11.993000 46.346001 # HW SOL
451 151 1 -0.847600 8.397000 35.480000 34.334000 # OW SOL
452 151 2 0.423800 7.791000 36.247002 34.542999 # HW SOL
453 151 2 0.423800 8.224000 35.161999 33.401001 # HW SOL
454 152 1 -0.847600 9.732000 19.783001 36.537003 # OW SOL
455 152 2 0.423800 9.425000 18.950001 36.997002 # HW SOL
456 152 2 0.423800 9.527000 20.576000 37.112000 # HW SOL
457 153 1 -0.847600 34.997002 16.558001 39.915001 # OW SOL
458 153 2 0.423800 34.320000 17.048000 39.364998 # HW SOL
459 153 2 0.423800 34.910000 15.575000 39.751999 # HW SOL
460 154 1 -0.847600 25.891001 7.757000 49.296001 # OW SOL
461 154 2 0.423800 25.882999 8.654000 49.737999 # HW SOL
462 154 2 0.423800 26.120001 7.055000 49.971001 # HW SOL
463 155 1 -0.847600 0.782000 27.193001 44.430000 # OW SOL
464 155 2 0.423800 1.698000 27.378000 44.074001 # HW SOL
465 155 2 0.423800 0.227000 26.764000 43.718002 # HW SOL
466 156 1 -0.847600 23.254999 31.510000 33.178001 # OW SOL
467 156 2 0.423800 22.542000 31.586000 32.481003 # HW SOL
468 156 2 0.423800 23.698000 32.398998 33.298000 # HW SOL
469 157 1 -0.847600 15.232000 6.206000 21.654001 # OW SOL
470 157 2 0.423800 15.622000 6.232000 20.733000 # HW SOL
471 157 2 0.423800 15.592000 6.970000 22.190001 # HW SOL
472 158 1 -0.847600 0.626000 14.241000 36.648003 # OW SOL
473 158 2 0.423800 0.557000 15.097000 37.161003 # HW SOL
474 158 2 0.423800 1.505000 13.805000 36.844002 # HW SOL
475 159 1 -0.847600 7.145000 34.490002 42.315002 # OW SOL
476 159 2 0.423800 7.908000 35.122002 42.446999 # HW SOL
477 159 2 0.423800 7.452000 33.555000 42.488998 # HW SOL
478 160 1 -0.847600 35.374001 12.451000 30.480000 # OW SOL
479 160 2 0.423800 35.130001 12.895000 29.618000 # HW SOL
480 160 2 0.423800 36.082001 11.764000 30.313000 # HW SOL
481 161 1 -0.847600 9.607000 5.927000 20.827002 # OW SOL
482 161 2 0.423800 10.545000 5.704000 20.563000 # HW SOL
483 161 2 0.423800 9.572000 6.863000 21.176001 # HW SOL
484 162 1 -0.847600 27.434000 34.436001 21.634001 # OW SOL
485 162 2 0.423800 27.924999 34.612999 22.487001 # HW SOL
486 162 2 0.423800 27.662001 33.520000 21.303001 # HW SOL
487 163 1 -0.847600 36.049000 6.013000 32.673000 # OW SOL
488 163 2 0.423800 36.027000 6.760000 32.009003 # HW SOL
489 163 2 0.423800 36.756001 5.356000 32.410999 # HW SOL
490 164 1 -0.847600 25.087999 30.528000 51.277000 # OW SOL
491 164 2 0.423800 24.905001 30.715000 50.311001 # HW SOL
492 164 2 0.423800 24.231001 30.299000 51.739998 # HW SOL
493 165 1 -0.847600 17.823999 21.118000 34.557999 # OW SOL
494 165 2 0.423800 18.819000 21.104000 34.659000 # HW SOL
495 165 2 0.423800 17.482000 20.180000 34.504002 # HW SOL
496 166 1 -0.847600 11.532000 23.725000 60.153000 # OW SOL
497 166 2 0.423800 11.754000 22.767000 59.969002 # HW SOL
498 166 2 0.423800 11.856000 24.292999 59.397003 # HW SOL
499 167 1 -0.847600 25.677000 33.150002 37.037003 # OW SOL
500 167 2 0.423800 25.622000 33.493999 36.098999 # HW SOL
501 167 2 0.423800 26.497000 33.514000 37.478001 # HW SOL
502 168 1 -0.847600 39.569000 8.137000 27.799000 # OW SOL
503 168 2 0.423800 38.902000 8.420000 27.110001 # HW SOL
504 168 2 0.423800 39.188000 7.390000 28.345001 # HW SOL
505 169 1 -0.847600 13.172000 27.783001 49.004002 # OW SOL
506 169 2 0.423800 12.804000 28.459000 48.366001 # HW SOL
507 169 2 0.423800 12.982000 26.863001 48.661003 # HW SOL
508 170 1 -0.847600 19.889999 36.610001 50.002998 # OW SOL
509 170 2 0.423800 19.504999 36.671001 50.924000 # HW SOL
510 170 2 0.423800 20.406000 37.442001 49.802002 # HW SOL
511 171 1 -0.847600 39.655998 19.424999 59.233002 # OW SOL
512 171 2 0.423800 38.852001 18.996000 59.645004 # HW SOL
513 171 2 0.423800 39.967999 18.872999 58.459999 # HW SOL
514 172 1 -0.847600 16.931000 36.063000 54.195999 # OW SOL
515 172 2 0.423800 16.070999 36.353001 53.776001 # HW SOL
516 172 2 0.423800 16.743000 35.382000 54.903000 # HW SOL
517 173 1 -0.847600 14.406000 23.226999 30.520000 # OW SOL
518 173 2 0.423800 15.198000 22.737000 30.155001 # HW SOL
519 173 2 0.423800 13.938000 23.704000 29.777000 # HW SOL
520 174 1 -0.847600 23.746000 19.044001 40.577003 # OW SOL