Created on Thu Apr 14 10:57:22 2022 

        1856 atoms
        2176 bonds
        3840 angles
        5120 dihedrals
        3456 impropers

           4 atom types
           4 bond types
           8 angle types
           1 dihedral types
           1 improper types
           0.000000  32.212000 xlo xhi
           0.000000  32.252000 ylo yhi
           0.000000  58.171626 zlo zhi
           0.000000  -6.494153   0.000000 xy xz yz

Masses

    1    65.380000000 # Zn3+2
    2    12.010700000 # C_R
    3     1.007940000 # H_
    4    14.006700000 # N_R

Bond Coeffs

    1      165.837318        1.881712  # Zn3+2 N_R
    2      357.440381        1.081418  # C_R H_
    3      663.718927        1.345073  # C_R N_R
    4      462.655054        1.379256  # C_R C_R

Angle Coeffs

    1                      fourier      197.524216        0.343737        0.374972        0.281246 # N_R Zn3+2 N_R
    2              cosine/periodic       79.786967              -1               3 # H_ C_R N_R
    3              cosine/periodic      212.442573              -1               3 # N_R C_R N_R
    4              cosine/periodic      153.699352              -1               3 # C_R C_R N_R
    5              cosine/periodic      111.297508              -1               3 # C_R C_R C_R
    6              cosine/periodic       57.289016              -1               3 # C_R C_R H_
    7              cosine/periodic      120.000516              -1               3 # C_R N_R C_R
    8              cosine/periodic       45.889625              -1               3 # C_R N_R Zn3+2

Dihedral Coeffs

    1        3.368555              -1               2 # H_ C_R N_R C_R

Improper Coeffs

    1        2.000000        1.000000       -1.000000        0.000000               0 # H_ C_R N_R N_R

Pair Coeffs

    1        0.124000        2.461553 # Zn3+2 Zn3+2
    2        0.105000        3.430851 # C_R C_R
    3        0.044000        2.571134 # H_ H_
    4        0.069000        3.260689 # N_R N_R

Atoms

       1      444        1     0.00000   10.48006   13.58874   14.54349
       2      444        2     0.00000    0.75463    3.20424   14.08742
       3      444        3     0.00000    1.18209    2.79302   14.80293
       4      444        2     0.00000   -0.69689    3.62480   12.54704
       5      444        2     0.00000    0.30042    4.60043   12.51504
       6      444        2     0.00000    0.25458    5.66506   11.61280
       7      444        3     0.00000    0.93029    6.30365   11.57615
       8      444        2     0.00000   -0.84144    5.72312   10.78327
       9      444        3     0.00000   -0.91628    6.43105   10.18411
      10      444        2     0.00000   14.25630    4.74911   10.81236
      11      444        3     0.00000   13.53527    4.82006   10.23064
      12      444        2     0.00000   14.31911    3.68640   11.69250
      13      444        3     0.00000   13.65340    3.03814   11.71169
      14      444        2     0.00000   12.15666   15.93249   14.06764
      15      444        3     0.00000   11.72491    0.23060   14.77559
      16      444        2     0.00000   12.61737   14.51179   12.53773
      17      444        2     0.00000   13.58805   15.52289   12.52784
      18      444        2     0.00000   14.65623   15.48257   11.63025
      19      444        3     0.00000   -0.82000    0.04032   11.60117
      20      444        2     0.00000   14.74350   14.39084   10.79084
      21      444        3     0.00000   -0.64159   14.32311   10.20505
      22      444        2     0.00000   13.77120   13.38135   10.80073
      23      444        3     0.00000   13.85033   12.67020   10.20738
      24      444        2     0.00000   12.70712   13.42006   11.66167
      25      444        3     0.00000   12.06590   12.74599   11.66341
      26      444        2     0.00000   12.79748   11.89293   15.02166
      27      444        3     0.00000   13.21854   12.31865   14.30847
      28      444        2     0.00000   11.37343   11.45107   16.56786
      29      444        2     0.00000   10.31594   11.40592   17.47068
      30      444        3     0.00000    9.67444   12.07837   17.50384
      31      444        2     0.00000   10.26339   10.31741   18.31650
      32      444        3     0.00000    9.56411   10.24969   18.92498
      33      444        2     0.00000   11.23713    9.31115   18.27927
      34      444        3     0.00000   11.16710    8.58871   18.86331
      35      444        2     0.00000   12.29511    9.36598   17.40088
      36      444        3     0.00000   12.94149    8.69675   17.38168
      37      444        2     0.00000   12.36287   10.45029   16.54866
      38      444        2     0.00000   12.79734    7.19703   14.08510
      39      444        3     0.00000   13.21695    6.77453   14.79886
      40      444        2     0.00000   12.38062    8.62064   12.52319
      41      444        2     0.00000   12.35185    9.69818   11.62676
      42      444        3     0.00000   13.02864   10.33677   11.60931
      43      444        2     0.00000   11.27737    9.76591   10.77746
      44      444        3     0.00000   11.22733   10.47061   10.17247
      45      444        2     0.00000   10.25218    8.80963   10.78502
      46      444        3     0.00000    9.53844    8.89833   10.19574
      47      444        2     0.00000   10.28703    7.73887   11.65585
      48      444        3     0.00000    9.61702    7.09544   11.65585
      49      444        2     0.00000   11.36684    7.65824   12.52959
      50      444        4     0.00000   -0.37908    2.73174   13.55224
      51      444        4     0.00000    1.22157    4.31209   13.51152
      52      444        4     0.00000   11.70087   14.78754   13.54817
      53      444        4     0.00000   13.25467    0.30639   13.52316
      54      444        4     0.00000   11.65513    6.73744   13.55399
      55      444        4     0.00000   13.29011    8.29683   13.52316
      56      444        4     0.00000   13.26609   10.77056   15.54171
      57      444        4     0.00000   11.68863   12.37671   15.57662
      58      444        1     0.00000    2.42706    5.52574   14.54349
      59      444        2     0.00000    8.80763   11.26724   14.08742
      60      444        3     0.00000    9.23509   10.85602   14.80293
      61      444        2     0.00000    7.35611   11.68780   12.54704
      62      444        2     0.00000    8.35342   12.66343   12.51504
      63      444        2     0.00000    8.30758   13.72806   11.61280
      64      444        3     0.00000    8.98329   14.36665   11.57615
      65      444        2     0.00000    7.21156   13.78612   10.78327
      66      444        3     0.00000    7.13672   14.49405   10.18411
      67      444        2     0.00000    6.20330   12.81211   10.81236
      68      444        3     0.00000    5.48227   12.88306   10.23064
      69      444        2     0.00000    6.26611   11.74940   11.69250
      70      444        3     0.00000    5.60040   11.10114   11.71169
      71      444        2     0.00000    4.10366    7.86949   14.06764
      72      444        3     0.00000    3.67191    8.29360   14.77559
      73      444        2     0.00000    4.56437    6.44879   12.53773
      74      444        2     0.00000    5.53505    7.45989   12.52784
      75      444        2     0.00000    6.60323    7.41957   11.63025
      76      444        3     0.00000    7.23300    8.10332   11.60117
      77      444        2     0.00000    6.69050    6.32784   10.79084
      78      444        3     0.00000    7.41141    6.26011   10.20505
      79      444        2     0.00000    5.71820    5.31835   10.80073
      80      444        3     0.00000    5.79733    4.60720   10.20738
      81      444        2     0.00000    4.65412    5.35706   11.66167
      82      444        3     0.00000    4.01290    4.68299   11.66341
      83      444        2     0.00000    4.74448    3.82993   15.02166
      84      444        3     0.00000    5.16554    4.25565   14.30847
      85      444        2     0.00000    3.32043    3.38807   16.56786
      86      444        2     0.00000    2.26294    3.34292   17.47068
      87      444        3     0.00000    1.62144    4.01537   17.50384
      88      444        2     0.00000    2.21039    2.25441   18.31650
      89      444        3     0.00000    1.51111    2.18669   18.92498
      90      444        2     0.00000    3.18413    1.24815   18.27927
      91      444        3     0.00000    3.11410    0.52571   18.86331
      92      444        2     0.00000    4.24211    1.30298   17.40088
      93      444        3     0.00000    4.88849    0.63375   17.38168
      94      444        2     0.00000    4.30987    2.38729   16.54866
      95      444        2     0.00000    4.74434   15.26003   14.08510
      96      444        3     0.00000    5.16395   14.83753   14.79886
      97      444        2     0.00000    4.32762    0.55731   12.52319
      98      444        2     0.00000    4.29885    1.63518   11.62676
      99      444        3     0.00000    4.97564    2.27377   11.60931
     100      444        2     0.00000    3.22437    1.70291   10.77746
     101      444        3     0.00000    3.17433    2.40761   10.17247
     102      444        2     0.00000    2.19918    0.74663   10.78502
     103      444        3     0.00000    1.48544    0.83533   10.19574
     104      444        2     0.00000    2.23403   15.80187   11.65585
     105      444        3     0.00000    1.56402   15.15844   11.65585
     106      444        2     0.00000    3.31384   15.72124   12.52959
     107      444        4     0.00000    7.67392   10.79474   13.55224
     108      444        4     0.00000    9.27457   12.37509   13.51152
     109      444        4     0.00000    3.64787    6.72454   13.54817
     110      444        4     0.00000    5.20167    8.36939   13.52316
     111      444        4     0.00000    3.60213   14.80044   13.55399
     112      444        4     0.00000    5.23711    0.23383   13.52316
     113      444        4     0.00000    5.21309    2.70756   15.54171
     114      444        4     0.00000    3.63563    4.31371   15.57662
     115      444        1     0.00000    2.37887   13.58874   14.54232
     116      444        2     0.00000   12.10430    3.20424   14.99839
     117      444        3     0.00000   11.67683    2.79302   14.28288
     118      444        2     0.00000   13.55582    3.62480   16.53877
     119      444        2     0.00000   12.55850    4.60043   16.57077
     120      444        2     0.00000   12.60434    5.66506   17.47301
     121      444        3     0.00000   11.92863    6.30365   17.50966
     122      444        2     0.00000   13.70036    5.72312   18.30254
     123      444        3     0.00000   13.77520    6.43105   18.90171
     124      444        2     0.00000   -1.39738    4.74911   18.27345
     125      444        3     0.00000   -0.67635    4.82006   18.85517
     126      444        2     0.00000   -1.46018    3.68640   17.39332
     127      444        3     0.00000   -0.79447    3.03814   17.37412
     128      444        2     0.00000    0.70226   15.93249   15.01817
     129      444        3     0.00000    1.13402    0.23060   14.31022
     130      444        2     0.00000    0.24156   14.51179   16.54808
     131      444        2     0.00000   -0.72913   15.52289   16.55797
     132      444        2     0.00000   -1.79730   15.48257   17.45556
     133      444        3     0.00000   13.67893    0.04032   17.48465
     134      444        2     0.00000   -1.88457   14.39084   18.29498
     135      444        3     0.00000   13.50052   14.32311   18.88076
     136      444        2     0.00000   -0.91228   13.38135   18.28509
     137      444        3     0.00000   -0.99140   12.67020   18.87844
     138      444        2     0.00000    0.15181   13.42006   17.42415
     139      444        3     0.00000    0.79302   12.74599   17.42240
     140      444        2     0.00000    0.06145   11.89293   14.06415
     141      444        3     0.00000   -0.35962   12.31865   14.77734
     142      444        2     0.00000    1.48550   11.45107   12.51795
     143      444        2     0.00000    2.54298   11.40592   11.61513
     144      444        3     0.00000    3.18448   12.07837   11.58197
     145      444        2     0.00000    2.59553   10.31741   10.76931
     146      444        3     0.00000    3.29482   10.24969   10.16084
     147      444        2     0.00000    1.62179    9.31115   10.80654
     148      444        3     0.00000    1.69183    8.58871   10.22250
     149      444        2     0.00000    0.56382    9.36598   11.68493
     150      444        3     0.00000   -0.08257    8.69675   11.70413
     151      444        2     0.00000    0.49606   10.45029   12.53715
     152      444        2     0.00000    0.06158    7.19703   15.00072
     153      444        3     0.00000   -0.35802    6.77453   14.28695
     154      444        2     0.00000    0.47830    8.62064   16.56263
     155      444        2     0.00000    0.50707    9.69818   17.45905
     156      444        3     0.00000   -0.16971   10.33677   17.47650
     157      444        2     0.00000    1.58156    9.76591   18.30836
     158      444        3     0.00000    1.63159   10.47061   18.91334
     159      444        2     0.00000    2.60674    8.80963   18.30079
     160      444        3     0.00000    3.32049    8.89833   18.89007
     161      444        2     0.00000    2.57189    7.73887   17.42996
     162      444        3     0.00000    3.24190    7.09544   17.42996
     163      444        2     0.00000    1.49208    7.65824   16.55623
     164      444        4     0.00000   13.23800    2.73174   15.53357
     165      444        4     0.00000   11.63735    4.31209   15.57429
     166      444        4     0.00000    1.15805   14.78754   15.53764
     167      444        4     0.00000   -0.39575    0.30639   15.56266
     168      444        4     0.00000    1.20380    6.73744   15.53182
     169      444        4     0.00000   -0.43118    8.29683   15.56266
     170      444        4     0.00000   -0.40716   10.77056   13.54410
     171      444        4     0.00000    1.17029   12.37671   13.50920
     172      444        1     0.00000   10.43187    5.52574   14.54232
     173      444        2     0.00000    4.05130   11.26724   14.99839
     174      444        3     0.00000    3.62383   10.85602   14.28288
     175      444        2     0.00000    5.50282   11.68780   16.53877
     176      444        2     0.00000    4.50550   12.66343   16.57077
     177      444        2     0.00000    4.55134   13.72806   17.47301
     178      444        3     0.00000    3.87563   14.36665   17.50966
     179      444        2     0.00000    5.64736   13.78612   18.30254
     180      444        3     0.00000    5.72220   14.49405   18.90171
     181      444        2     0.00000    6.65562   12.81211   18.27345
     182      444        3     0.00000    7.37665   12.88306   18.85517
     183      444        2     0.00000    6.59282   11.74940   17.39332
     184      444        3     0.00000    7.25853   11.10114   17.37412
     185      444        2     0.00000    8.75526    7.86949   15.01817
     186      444        3     0.00000    9.18702    8.29360   14.31022
     187      444        2     0.00000    8.29456    6.44879   16.54808
     188      444        2     0.00000    7.32387    7.45989   16.55797
     189      444        2     0.00000    6.25570    7.41957   17.45556
     190      444        3     0.00000    5.62593    8.10332   17.48465
     191      444        2     0.00000    6.16843    6.32784   18.29498
     192      444        3     0.00000    5.44752    6.26011   18.88076
     193      444        2     0.00000    7.14072    5.31835   18.28509
     194      444        3     0.00000    7.06160    4.60720   18.87844
     195      444        2     0.00000    8.20481    5.35706   17.42415
     196      444        3     0.00000    8.84602    4.68299   17.42240
     197      444        2     0.00000    8.11445    3.82993   14.06415
     198      444        3     0.00000    7.69338    4.25565   14.77734
     199      444        2     0.00000    9.53850    3.38807   12.51795
     200      444        2     0.00000   10.59598    3.34292   11.61513
     201      444        3     0.00000   11.23748    4.01537   11.58197
     202      444        2     0.00000   10.64853    2.25441   10.76931
     203      444        3     0.00000   11.34782    2.18669   10.16084
     204      444        2     0.00000    9.67479    1.24815   10.80654
     205      444        3     0.00000    9.74483    0.52571   10.22250
     206      444        2     0.00000    8.61682    1.30298   11.68493
     207      444        3     0.00000    7.97043    0.63375   11.70413
     208      444        2     0.00000    8.54906    2.38729   12.53715
     209      444        2     0.00000    8.11458   15.26003   15.00072
     210      444        3     0.00000    7.69498   14.83753   14.28695
     211      444        2     0.00000    8.53130    0.55731   16.56263
     212      444        2     0.00000    8.56007    1.63518   17.45905
     213      444        3     0.00000    7.88329    2.27377   17.47650
     214      444        2     0.00000    9.63456    1.70291   18.30836
     215      444        3     0.00000    9.68459    2.40761   18.91334
     216      444        2     0.00000   10.65974    0.74663   18.30079
     217      444        3     0.00000   11.37349    0.83533   18.89007
     218      444        2     0.00000   10.62489   15.80187   17.42996
     219      444        3     0.00000   11.29490   15.15844   17.42996
     220      444        2     0.00000    9.54508   15.72124   16.55623
     221      444        4     0.00000    5.18500   10.79474   15.53357
     222      444        4     0.00000    3.58435   12.37509   15.57429
     223      444        4     0.00000    9.21105    6.72454   15.53764
     224      444        4     0.00000    7.65725    8.36939   15.56266
     225      444        4     0.00000    9.25680   14.80044   15.53182
     226      444        4     0.00000    7.62182    0.23383   15.56266
     227      444        4     0.00000    7.64584    2.70756   13.54410
     228      444        4     0.00000    9.22329    4.31371   13.50920
     229      444        1     0.00000    3.46125    2.53726    4.84686
     230      444        2     0.00000   13.18661   12.92176    5.30351
     231      444        3     0.00000   12.75915   13.33298    4.58800
     232      444        2     0.00000   14.63813   12.50120    6.84389
     233      444        2     0.00000   13.64088   11.52557    6.87530
     234      444        2     0.00000   13.68672   10.46094    7.77755
     235      444        3     0.00000   13.01101    9.82235    7.81419
     236      444        2     0.00000   14.78268   10.40288    8.60766
     237      444        3     0.00000   14.85752    9.69495    9.20682
     238      444        2     0.00000   -0.31506   11.37689    8.57857
     239      444        3     0.00000    0.40597   11.30594    9.16029
     240      444        2     0.00000   -0.37780   12.43960    7.69785
     241      444        3     0.00000    0.28791   13.08786    7.67865
     242      444        2     0.00000    1.78464    0.19351    5.32270
     243      444        3     0.00000    2.21640   15.89540    4.61476
     244      444        2     0.00000    1.32394    1.61421    6.85262
     245      444        2     0.00000    0.35319    0.60311    6.86309
     246      444        2     0.00000   -0.71492    0.64343    7.76009
     247      444        3     0.00000   14.76131   16.08569    7.78918
     248      444        2     0.00000   -0.80219    1.73516    8.59951
     249      444        3     0.00000   14.58290    1.80289    9.18530
     250      444        2     0.00000    0.17004    2.74465    8.59020
     251      444        3     0.00000    0.09091    3.45580    9.18355
     252      444        2     0.00000    1.23412    2.70594    7.72926
     253      444        3     0.00000    1.87540    3.38001    7.72694
     254      444        2     0.00000    1.14383    4.23308    4.36869
     255      444        3     0.00000    0.72270    3.80735    5.08245
     256      444        2     0.00000    2.56788    4.67493    2.82249
     257      444        2     0.00000    3.62536    4.72008    1.91966
     258      444        3     0.00000    4.26686    4.04763    1.88651
     259      444        2     0.00000    3.67785    5.80859    1.07443
     260      444        3     0.00000    4.37720    5.87631    0.46537
     261      444        2     0.00000    2.70418    6.81485    1.11108
     262      444        3     0.00000    2.77414    7.53729    0.52762
     263      444        2     0.00000    1.64620    6.76002    1.98947
     264      444        3     0.00000    0.99981    7.42925    2.00867
     265      444        2     0.00000    1.57844    5.67603    2.84168
     266      444        2     0.00000    1.14396    8.92897    5.30525
     267      444        3     0.00000    0.72436    9.35147    4.59149
     268      444        2     0.00000    1.56062    7.50569    6.86774
     269      444        2     0.00000    1.58939    6.42782    7.76417
     270      444        3     0.00000    0.91260    5.78923    7.78162
     271      444        2     0.00000    2.66387    6.36009    8.61347
     272      444        3     0.00000    2.71391    5.65539    9.21846
     273      444        2     0.00000    3.68912    7.31637    8.60533
     274      444        3     0.00000    4.40280    7.22767    9.19519
     275      444        2     0.00000    3.65421    8.38713    7.73508
     276      444        3     0.00000    4.32422    9.03056    7.73508
     277      444        2     0.00000    2.57446    8.46809    6.86076
     278      444        4     0.00000   14.32032   13.39426    5.83869
     279      444        4     0.00000   12.71967   11.81391    5.87941
     280      444        4     0.00000    2.24043    1.33846    5.84218
     281      444        4     0.00000    0.68656   15.81961    5.86777
     282      444        4     0.00000    2.28618    9.38856    5.83636
     283      444        4     0.00000    0.65113    7.82917    5.86777
     284      444        4     0.00000    0.67515    5.35544    3.84922
     285      444        4     0.00000    2.25261    3.74930    3.81431
     286      444        1     0.00000   11.51425   10.60026    4.84686
     287      444        2     0.00000    5.13361    4.85876    5.30351
     288      444        3     0.00000    4.70615    5.26998    4.58800
     289      444        2     0.00000    6.58513    4.43820    6.84389
     290      444        2     0.00000    5.58788    3.46257    6.87530
     291      444        2     0.00000    5.63372    2.39794    7.77755
     292      444        3     0.00000    4.95801    1.75935    7.81419
     293      444        2     0.00000    6.72968    2.33988    8.60766
     294      444        3     0.00000    6.80452    1.63195    9.20682
     295      444        2     0.00000    7.73794    3.31389    8.57857
     296      444        3     0.00000    8.45897    3.24294    9.16029
     297      444        2     0.00000    7.67520    4.37660    7.69785
     298      444        3     0.00000    8.34091    5.02486    7.67865
     299      444        2     0.00000    9.83764    8.25651    5.32270
     300      444        3     0.00000   10.26940    7.83240    4.61476
     301      444        2     0.00000    9.37694    9.67721    6.85262
     302      444        2     0.00000    8.40619    8.66611    6.86309
     303      444        2     0.00000    7.33808    8.70643    7.76009
     304      444        3     0.00000    6.70831    8.02269    7.78918
     305      444        2     0.00000    7.25081    9.79816    8.59951
     306      444        3     0.00000    6.52990    9.86589    9.18530
     307      444        2     0.00000    8.22304   10.80765    8.59020
     308      444        3     0.00000    8.14391   11.51880    9.18355
     309      444        2     0.00000    9.28712   10.76894    7.72926
     310      444        3     0.00000    9.92840   11.44301    7.72694
     311      444        2     0.00000    9.19683   12.29608    4.36869
     312      444        3     0.00000    8.77570   11.87035    5.08245
     313      444        2     0.00000   10.62088   12.73793    2.82249
     314      444        2     0.00000   11.67836   12.78308    1.91966
     315      444        3     0.00000   12.31986   12.11063    1.88651
     316      444        2     0.00000   11.73085   13.87159    1.07443
     317      444        3     0.00000   12.43020   13.93931    0.46537
     318      444        2     0.00000   10.75718   14.87785    1.11108
     319      444        3     0.00000   10.82714   15.60029    0.52762
     320      444        2     0.00000    9.69920   14.82302    1.98947
     321      444        3     0.00000    9.05281   15.49225    2.00867
     322      444        2     0.00000    9.63144   13.73903    2.84168
     323      444        2     0.00000    9.19696    0.86597    5.30525
     324      444        3     0.00000    8.77736    1.28847    4.59149
     325      444        2     0.00000    9.61362   15.56869    6.86774
     326      444        2     0.00000    9.64239   14.49082    7.76417
     327      444        3     0.00000    8.96560   13.85223    7.78162
     328      444        2     0.00000   10.71687   14.42309    8.61347
     329      444        3     0.00000   10.76691   13.71839    9.21846
     330      444        2     0.00000   11.74212   15.37937    8.60533
     331      444        3     0.00000   12.45580   15.29067    9.19519
     332      444        2     0.00000   11.70721    0.32413    7.73508
     333      444        3     0.00000   12.37722    0.96756    7.73508
     334      444        2     0.00000   10.62746    0.40509    6.86076
     335      444        4     0.00000    6.26732    5.33126    5.83869
     336      444        4     0.00000    4.66667    3.75091    5.87941
     337      444        4     0.00000   10.29343    9.40146    5.84218
     338      444        4     0.00000    8.73956    7.75661    5.86777
     339      444        4     0.00000   10.33918    1.32556    5.83636
     340      444        4     0.00000    8.70413   15.89217    5.86777
     341      444        4     0.00000    8.72815   13.41844    3.84922
     342      444        4     0.00000   10.30561   11.81230    3.81431
     343      444        1     0.00000   11.56237    2.53726    4.84861
     344      444        2     0.00000    1.83701   12.92176    4.39196
     345      444        3     0.00000    2.26447   13.33298    5.10747
     346      444        2     0.00000    0.38549   12.50120    2.85157
     347      444        2     0.00000    1.38280   11.52557    2.81958
     348      444        2     0.00000    1.33690   10.46094    1.91792
     349      444        3     0.00000    2.01267    9.82235    1.88069
     350      444        2     0.00000    0.24094   10.40288    1.08781
     351      444        3     0.00000    0.16610    9.69495    0.48864
     352      444        2     0.00000   15.33868   11.37689    1.11690
     353      444        3     0.00000   14.61765   11.30594    0.53518
     354      444        2     0.00000   15.40149   12.43960    1.99703
     355      444        3     0.00000   14.73571   13.08786    2.01681
     356      444        2     0.00000   13.23898    0.19351    4.37276
     357      444        3     0.00000   12.80729   15.89540    5.08013
     358      444        2     0.00000   13.69968    1.61421    2.84285
     359      444        2     0.00000   14.67043    0.60311    2.83238
     360      444        2     0.00000   15.73854    0.64343    1.93537
     361      444        3     0.00000    0.26231   16.08569    1.90628
     362      444        2     0.00000   15.82588    1.73516    1.09537
     363      444        3     0.00000    0.44072    1.80289    0.51017
     364      444        2     0.00000   14.85358    2.74465    1.10526
     365      444        3     0.00000   14.93271    3.45580    0.51191
     366      444        2     0.00000   13.78950    2.70594    1.96620
     367      444        3     0.00000   13.14828    3.38001    1.96795
     368      444        2     0.00000   13.87979    4.23308    5.32678
     369      444        3     0.00000   14.30092    3.80735    4.61301
     370      444        2     0.00000   12.45581    4.67493    6.87240
     371      444        2     0.00000   11.39826    4.72008    7.77580
     372      444        3     0.00000   10.75682    4.04763    7.80838
     373      444        2     0.00000   11.34577    5.80859    8.62103
     374      444        3     0.00000   10.64642    5.87631    9.23009
     375      444        2     0.00000   12.31944    6.81485    8.58439
     376      444        3     0.00000   12.24948    7.53729    9.16785
     377      444        2     0.00000   13.37742    6.76002    7.70600
     378      444        3     0.00000   14.02387    7.42925    7.68622
     379      444        2     0.00000   13.44525    5.67603    6.85320
     380      444        2     0.00000   13.87966    8.92897    4.39021
     381      444        3     0.00000   14.29933    9.35147    5.10340
     382      444        2     0.00000   13.46300    7.50569    2.82772